/*--------------------------------*- C++ -*----------------------------------*\
  =========                 |
  \\      /  F ield         | OpenFOAM: The Open Source CFD Toolbox
   \\    /   O peration     | Website:  https://openfoam.org
    \\  /    A nd           | Version:  9
     \\/     M anipulation  |
\*---------------------------------------------------------------------------*/
FoamFile
{
    format      ascii;
    class       volScalarField;
    location    "0";
    object      decayHeatSource;
}
// * * * * * * * * * * * * * * * * * * * * * * * * * * * * * * * * * * * * * //

dimensions      [1 -1 -3 0 0 0 0];

internalField   nonuniform List<scalar> 
54384
(
4.57081e+06
4.57161e+06
4.57083e+06
4.56967e+06
4.56855e+06
4.56384e+06
4.56424e+06
4.55827e+06
4.55802e+06
4.55195e+06
4.551e+06
4.54522e+06
4.54347e+06
4.53844e+06
4.53563e+06
4.53153e+06
4.52341e+06
4.52335e+06
4.51549e+06
4.51488e+06
4.50809e+06
4.50676e+06
4.5014e+06
4.49909e+06
4.49546e+06
4.49188e+06
4.48919e+06
4.48145e+06
4.48177e+06
4.47519e+06
4.47465e+06
4.46958e+06
4.46804e+06
4.46464e+06
4.46181e+06
4.46007e+06
4.45256e+06
4.45385e+06
4.44628e+06
4.44654e+06
4.44009e+06
4.43915e+06
4.43396e+06
4.43154e+06
4.42787e+06
4.42341e+06
4.42071e+06
4.40864e+06
4.40974e+06
4.39728e+06
4.39669e+06
4.38462e+06
4.38181e+06
4.37069e+06
4.3647e+06
4.35548e+06
4.34495e+06
4.33529e+06
4.30755e+06
4.30753e+06
4.27914e+06
4.27565e+06
4.24876e+06
4.24072e+06
4.2171e+06
4.20268e+06
4.18295e+06
4.1378e+06
4.13873e+06
4.09425e+06
4.09136e+06
4.05283e+06
4.0457e+06
4.01262e+06
4.00057e+06
3.9705e+06
3.95156e+06
3.91908e+06
3.89148e+06
3.88406e+06
3.87492e+06
3.87375e+06
3.86994e+06
3.8693e+06
3.86695e+06
3.86638e+06
3.86479e+06
3.86339e+06
3.8631e+06
3.86196e+06
3.86176e+06
3.86089e+06
3.86074e+06
3.8601e+06
3.85998e+06
3.85952e+06
3.85944e+06
3.85912e+06
3.85895e+06
3.85888e+06
3.85879e+06
3.85876e+06
3.85874e+06
3.85874e+06
3.85878e+06
3.85881e+06
3.85888e+06
3.85895e+06
3.85904e+06
3.85926e+06
3.85927e+06
3.85951e+06
3.85954e+06
3.85979e+06
3.85985e+06
3.8601e+06
3.86019e+06
3.86044e+06
3.8608e+06
3.86083e+06
3.86124e+06
3.8613e+06
3.86172e+06
3.86179e+06
3.86222e+06
3.86233e+06
3.86274e+06
3.8629e+06
3.86329e+06
3.86384e+06
3.86392e+06
3.8645e+06
3.86459e+06
3.86519e+06
3.86531e+06
3.86589e+06
3.86606e+06
3.86661e+06
3.86685e+06
3.86737e+06
3.86811e+06
3.86821e+06
3.86897e+06
3.86909e+06
4.56305e+06
4.56283e+06
4.56143e+06
4.56089e+06
4.55832e+06
4.5543e+06
4.55375e+06
4.54869e+06
4.54795e+06
4.542e+06
4.54105e+06
4.53449e+06
4.53323e+06
4.5264e+06
4.52474e+06
4.51803e+06
4.51072e+06
4.50965e+06
4.50231e+06
4.50128e+06
4.49411e+06
4.49296e+06
4.48616e+06
4.48475e+06
4.4785e+06
4.47673e+06
4.47126e+06
4.46512e+06
4.46441e+06
4.45853e+06
4.45774e+06
4.45214e+06
4.4511e+06
4.44581e+06
4.4444e+06
4.43946e+06
4.43359e+06
4.43307e+06
4.42703e+06
4.42637e+06
4.41996e+06
4.41894e+06
4.41207e+06
4.41047e+06
4.40308e+06
4.40067e+06
4.39277e+06
4.38202e+06
4.38078e+06
4.36825e+06
4.3665e+06
4.35193e+06
4.34918e+06
4.33249e+06
4.32823e+06
4.30963e+06
4.30329e+06
4.28341e+06
4.2569e+06
4.25326e+06
4.22295e+06
4.21827e+06
4.18599e+06
4.17971e+06
4.14618e+06
4.13757e+06
4.10325e+06
4.06532e+06
4.05893e+06
4.02414e+06
4.01918e+06
3.98753e+06
3.98292e+06
3.95374e+06
3.94909e+06
3.92229e+06
3.91777e+06
3.89353e+06
3.8779e+06
3.87613e+06
3.87081e+06
3.87025e+06
3.86746e+06
3.86713e+06
3.86519e+06
3.86492e+06
3.8635e+06
3.86241e+06
3.86221e+06
3.86135e+06
3.86122e+06
3.86054e+06
3.86045e+06
3.85993e+06
3.85987e+06
3.8595e+06
3.85946e+06
3.8592e+06
3.85906e+06
3.85902e+06
3.85896e+06
3.85895e+06
3.85896e+06
3.85896e+06
3.85903e+06
3.85905e+06
3.85916e+06
3.8592e+06
3.85935e+06
3.85953e+06
3.85956e+06
3.85978e+06
3.85982e+06
3.86007e+06
3.86011e+06
3.8604e+06
3.86045e+06
3.86077e+06
3.8611e+06
3.86117e+06
3.86154e+06
3.86161e+06
3.86202e+06
3.86209e+06
3.86254e+06
3.86262e+06
3.8631e+06
3.86319e+06
3.86369e+06
3.8642e+06
3.86431e+06
3.86487e+06
3.86497e+06
3.86557e+06
3.86567e+06
3.86631e+06
3.86642e+06
3.86709e+06
3.86722e+06
3.86789e+06
3.86859e+06
3.86872e+06
3.86946e+06
3.86957e+06
4.55979e+06
4.55955e+06
4.55839e+06
4.55847e+06
4.55508e+06
4.55214e+06
4.55041e+06
4.54605e+06
4.54458e+06
4.53885e+06
4.53778e+06
4.53084e+06
4.53019e+06
4.52234e+06
4.52204e+06
4.51366e+06
4.50746e+06
4.50503e+06
4.49834e+06
4.49662e+06
4.48943e+06
4.48849e+06
4.48087e+06
4.48069e+06
4.47281e+06
4.47321e+06
4.46533e+06
4.46064e+06
4.45842e+06
4.45325e+06
4.45196e+06
4.44614e+06
4.4458e+06
4.43926e+06
4.43974e+06
4.43258e+06
4.42892e+06
4.42598e+06
4.42134e+06
4.41925e+06
4.41318e+06
4.41208e+06
4.40422e+06
4.4041e+06
4.39427e+06
4.39493e+06
4.38308e+06
4.37465e+06
4.3703e+06
4.35879e+06
4.3555e+06
4.34012e+06
4.33818e+06
4.31828e+06
4.31769e+06
4.29319e+06
4.29358e+06
4.2651e+06
4.24198e+06
4.23361e+06
4.204e+06
4.19798e+06
4.16351e+06
4.16041e+06
4.1214e+06
4.12051e+06
4.07791e+06
4.04843e+06
4.03498e+06
4.00604e+06
3.9976e+06
3.96954e+06
3.96512e+06
3.93778e+06
3.93599e+06
3.91051e+06
3.90968e+06
3.88787e+06
3.87647e+06
3.87442e+06
3.86993e+06
3.8693e+06
3.86681e+06
3.86654e+06
3.86472e+06
3.86457e+06
3.86317e+06
3.86224e+06
3.862e+06
3.86124e+06
3.86109e+06
3.86048e+06
3.86039e+06
3.85992e+06
3.85986e+06
3.85952e+06
3.85947e+06
3.85926e+06
3.8591e+06
3.85909e+06
3.85902e+06
3.85903e+06
3.85903e+06
3.85904e+06
3.85911e+06
3.85912e+06
3.85925e+06
3.85925e+06
3.85942e+06
3.85959e+06
3.85963e+06
3.85984e+06
3.85988e+06
3.86013e+06
3.86017e+06
3.86045e+06
3.8605e+06
3.86082e+06
3.86114e+06
3.86122e+06
3.86159e+06
3.86166e+06
3.86207e+06
3.86214e+06
3.86259e+06
3.86266e+06
3.86314e+06
3.86322e+06
3.86373e+06
3.86425e+06
3.86435e+06
3.86492e+06
3.86502e+06
3.86563e+06
3.86572e+06
3.86637e+06
3.86647e+06
3.86715e+06
3.86726e+06
3.86795e+06
3.86866e+06
3.86879e+06
3.86954e+06
3.86966e+06
4.5515e+06
4.55144e+06
4.55015e+06
4.54979e+06
4.54684e+06
4.54303e+06
4.54191e+06
4.53664e+06
4.53552e+06
4.52905e+06
4.52794e+06
4.52059e+06
4.51943e+06
4.51158e+06
4.51025e+06
4.50224e+06
4.49453e+06
4.49272e+06
4.48469e+06
4.48322e+06
4.47518e+06
4.47397e+06
4.46616e+06
4.46508e+06
4.45768e+06
4.45659e+06
4.44966e+06
4.44339e+06
4.44196e+06
4.43568e+06
4.43459e+06
4.42835e+06
4.42748e+06
4.42127e+06
4.42045e+06
4.41421e+06
4.40844e+06
4.40677e+06
4.40011e+06
4.3987e+06
4.39106e+06
4.38978e+06
4.38099e+06
4.37965e+06
4.3696e+06
4.36785e+06
4.35623e+06
4.34321e+06
4.34017e+06
4.32407e+06
4.32108e+06
4.3019e+06
4.29875e+06
4.27632e+06
4.27254e+06
4.24696e+06
4.242e+06
4.21401e+06
4.18313e+06
4.17659e+06
4.14123e+06
4.13502e+06
4.09848e+06
4.09299e+06
4.05663e+06
4.05125e+06
4.01614e+06
3.9866e+06
3.97853e+06
3.95261e+06
3.94735e+06
3.92532e+06
3.92206e+06
3.90377e+06
3.90178e+06
3.88746e+06
3.88618e+06
3.8763e+06
3.87109e+06
3.87012e+06
3.86741e+06
3.86701e+06
3.86525e+06
3.86502e+06
3.86369e+06
3.86353e+06
3.86251e+06
3.86178e+06
3.8616e+06
3.861e+06
3.86089e+06
3.8604e+06
3.86033e+06
3.85996e+06
3.85991e+06
3.85964e+06
3.8596e+06
3.85943e+06
3.85931e+06
3.8593e+06
3.85925e+06
3.85925e+06
3.85925e+06
3.85926e+06
3.85931e+06
3.85932e+06
3.85941e+06
3.85943e+06
3.85955e+06
3.8597e+06
3.85974e+06
3.85993e+06
3.85996e+06
3.86019e+06
3.86023e+06
3.86049e+06
3.86054e+06
3.86084e+06
3.86115e+06
3.86122e+06
3.86158e+06
3.86164e+06
3.86205e+06
3.86211e+06
3.86255e+06
3.86263e+06
3.8631e+06
3.86319e+06
3.86368e+06
3.86419e+06
3.8643e+06
3.86486e+06
3.86496e+06
3.86556e+06
3.86566e+06
3.86631e+06
3.86642e+06
3.86709e+06
3.86723e+06
3.86791e+06
3.86862e+06
3.86876e+06
3.86951e+06
3.86963e+06
4.54437e+06
4.54432e+06
4.54288e+06
4.54237e+06
4.5394e+06
4.53513e+06
4.53418e+06
4.52831e+06
4.52726e+06
4.52017e+06
4.519e+06
4.51103e+06
4.50966e+06
4.50124e+06
4.49951e+06
4.49118e+06
4.48251e+06
4.48079e+06
4.47184e+06
4.47038e+06
4.46155e+06
4.4602e+06
4.45179e+06
4.45039e+06
4.44268e+06
4.44101e+06
4.43412e+06
4.427e+06
4.42576e+06
4.41877e+06
4.4177e+06
4.4109e+06
4.40982e+06
4.40322e+06
4.40188e+06
4.39554e+06
4.38839e+06
4.38713e+06
4.37893e+06
4.37766e+06
4.36844e+06
4.36694e+06
4.3565e+06
4.35445e+06
4.34283e+06
4.33958e+06
4.32693e+06
4.3098e+06
4.30703e+06
4.28672e+06
4.28354e+06
4.26035e+06
4.25635e+06
4.23016e+06
4.22459e+06
4.19589e+06
4.18834e+06
4.1587e+06
4.12479e+06
4.11829e+06
4.0821e+06
4.07617e+06
4.04065e+06
4.0354e+06
4.00188e+06
3.99721e+06
3.96689e+06
3.94503e+06
3.93856e+06
3.9199e+06
3.91616e+06
3.90086e+06
3.89877e+06
3.88687e+06
3.88578e+06
3.87714e+06
3.87664e+06
3.87116e+06
3.86851e+06
3.8679e+06
3.86609e+06
3.86581e+06
3.86446e+06
3.86428e+06
3.86322e+06
3.86309e+06
3.86225e+06
3.86166e+06
3.8615e+06
3.86101e+06
3.86091e+06
3.8605e+06
3.86044e+06
3.86011e+06
3.86007e+06
3.85982e+06
3.85979e+06
3.85962e+06
3.8595e+06
3.85948e+06
3.85941e+06
3.8594e+06
3.85938e+06
3.85938e+06
3.85939e+06
3.85939e+06
3.85945e+06
3.85946e+06
3.85955e+06
3.85965e+06
3.85968e+06
3.85983e+06
3.85986e+06
3.86006e+06
3.86009e+06
3.86034e+06
3.86038e+06
3.86065e+06
3.86092e+06
3.861e+06
3.86132e+06
3.86139e+06
3.86177e+06
3.86183e+06
3.86225e+06
3.86232e+06
3.86278e+06
3.86286e+06
3.86335e+06
3.86382e+06
3.86393e+06
3.86447e+06
3.86457e+06
3.86517e+06
3.86527e+06
3.86591e+06
3.86601e+06
3.86669e+06
3.86682e+06
3.8675e+06
3.86819e+06
3.86833e+06
3.86909e+06
3.86921e+06
4.53773e+06
4.53762e+06
4.53603e+06
4.53548e+06
4.53218e+06
4.5276e+06
4.52651e+06
4.52029e+06
4.51914e+06
4.51151e+06
4.51023e+06
4.50157e+06
4.50005e+06
4.49081e+06
4.48893e+06
4.47965e+06
4.47034e+06
4.46843e+06
4.45881e+06
4.45722e+06
4.44766e+06
4.44618e+06
4.43703e+06
4.43549e+06
4.42696e+06
4.42523e+06
4.41758e+06
4.41013e+06
4.40877e+06
4.4013e+06
4.40013e+06
4.3927e+06
4.39147e+06
4.38402e+06
4.38253e+06
4.37499e+06
4.36699e+06
4.36536e+06
4.35607e+06
4.35453e+06
4.34361e+06
4.34178e+06
4.32901e+06
4.32645e+06
4.31179e+06
4.30814e+06
4.2919e+06
4.27234e+06
4.26865e+06
4.2452e+06
4.24124e+06
4.21447e+06
4.20985e+06
4.17994e+06
4.1742e+06
4.14196e+06
4.1348e+06
4.10288e+06
4.07034e+06
4.06377e+06
4.0306e+06
4.02524e+06
3.99382e+06
3.9894e+06
3.96124e+06
3.95762e+06
3.93403e+06
3.91765e+06
3.91332e+06
3.90016e+06
3.89776e+06
3.8875e+06
3.88619e+06
3.87865e+06
3.87792e+06
3.87277e+06
3.87233e+06
3.86912e+06
3.86724e+06
3.86685e+06
3.86546e+06
3.86525e+06
3.86414e+06
3.86399e+06
3.8631e+06
3.86298e+06
3.86227e+06
3.86173e+06
3.8616e+06
3.86114e+06
3.86105e+06
3.86066e+06
3.8606e+06
3.86028e+06
3.86024e+06
3.85999e+06
3.85994e+06
3.85976e+06
3.85961e+06
3.85958e+06
3.85948e+06
3.85946e+06
3.8594e+06
3.85939e+06
3.85936e+06
3.85936e+06
3.85937e+06
3.85937e+06
3.85942e+06
3.85949e+06
3.85951e+06
3.85963e+06
3.85965e+06
3.85981e+06
3.85984e+06
3.86004e+06
3.86007e+06
3.8603e+06
3.86055e+06
3.86062e+06
3.86092e+06
3.86098e+06
3.86132e+06
3.86138e+06
3.86177e+06
3.86184e+06
3.86226e+06
3.86234e+06
3.86279e+06
3.86325e+06
3.86336e+06
3.86388e+06
3.86398e+06
3.86456e+06
3.86465e+06
3.86527e+06
3.86538e+06
3.86602e+06
3.86615e+06
3.86681e+06
3.86751e+06
3.86765e+06
3.86841e+06
3.86853e+06
4.53149e+06
4.53139e+06
4.52965e+06
4.52895e+06
4.52557e+06
4.52022e+06
4.51941e+06
4.5124e+06
4.51136e+06
4.50297e+06
4.50163e+06
4.49229e+06
4.49051e+06
4.48071e+06
4.47836e+06
4.46859e+06
4.4578e+06
4.45627e+06
4.44545e+06
4.44398e+06
4.43355e+06
4.43191e+06
4.42222e+06
4.42022e+06
4.41149e+06
4.40901e+06
4.40134e+06
4.39252e+06
4.39161e+06
4.38312e+06
4.38202e+06
4.37384e+06
4.37227e+06
4.3643e+06
4.36203e+06
4.35409e+06
4.34365e+06
4.34274e+06
4.33095e+06
4.32965e+06
4.31628e+06
4.3141e+06
4.29902e+06
4.2955e+06
4.27877e+06
4.27353e+06
4.2555e+06
4.2315e+06
4.2286e+06
4.20141e+06
4.19765e+06
4.1682e+06
4.16306e+06
4.13219e+06
4.12528e+06
4.09433e+06
4.08557e+06
4.05636e+06
4.02397e+06
4.01968e+06
3.98967e+06
3.98562e+06
3.95954e+06
3.95561e+06
3.93425e+06
3.93049e+06
3.91406e+06
3.90063e+06
3.89874e+06
3.88877e+06
3.88754e+06
3.88041e+06
3.87957e+06
3.87466e+06
3.87406e+06
3.8708e+06
3.87035e+06
3.86822e+06
3.86668e+06
3.86643e+06
3.86524e+06
3.86507e+06
3.8641e+06
3.86397e+06
3.86317e+06
3.86306e+06
3.8624e+06
3.86188e+06
3.86176e+06
3.86131e+06
3.86122e+06
3.86083e+06
3.86077e+06
3.86043e+06
3.86038e+06
3.8601e+06
3.86006e+06
3.85983e+06
3.85965e+06
3.85962e+06
3.85947e+06
3.85945e+06
3.85934e+06
3.85933e+06
3.85925e+06
3.85924e+06
3.85921e+06
3.8592e+06
3.85922e+06
3.85924e+06
3.85926e+06
3.85933e+06
3.85935e+06
3.85947e+06
3.85949e+06
3.85965e+06
3.85967e+06
3.85988e+06
3.86008e+06
3.86015e+06
3.8604e+06
3.86046e+06
3.86077e+06
3.86082e+06
3.86118e+06
3.86123e+06
3.86163e+06
3.86168e+06
3.86212e+06
3.86254e+06
3.86266e+06
3.86314e+06
3.86324e+06
3.86379e+06
3.86388e+06
3.86448e+06
3.86456e+06
3.8652e+06
3.86529e+06
3.86597e+06
3.86663e+06
3.86679e+06
3.86752e+06
3.86765e+06
4.52945e+06
4.52933e+06
4.52772e+06
4.52743e+06
4.52342e+06
4.51873e+06
4.51709e+06
4.5105e+06
4.50891e+06
4.50058e+06
4.49915e+06
4.48939e+06
4.4881e+06
4.47733e+06
4.47612e+06
4.46482e+06
4.45498e+06
4.45221e+06
4.44193e+06
4.43982e+06
4.42932e+06
4.42787e+06
4.41737e+06
4.4165e+06
4.40619e+06
4.40573e+06
4.39575e+06
4.3883e+06
4.3859e+06
4.37803e+06
4.37643e+06
4.36789e+06
4.36702e+06
4.35759e+06
4.35727e+06
4.34674e+06
4.33849e+06
4.33481e+06
4.32431e+06
4.32129e+06
4.30795e+06
4.30565e+06
4.28902e+06
4.28738e+06
4.26733e+06
4.26607e+06
4.24286e+06
4.22207e+06
4.21519e+06
4.18984e+06
4.18423e+06
4.15468e+06
4.15042e+06
4.11745e+06
4.11421e+06
4.07947e+06
4.07659e+06
4.04232e+06
4.0145e+06
4.00734e+06
3.98041e+06
3.97573e+06
3.95122e+06
3.9484e+06
3.92748e+06
3.92572e+06
3.90903e+06
3.8982e+06
3.89528e+06
3.88694e+06
3.88536e+06
3.87916e+06
3.87834e+06
3.87391e+06
3.87346e+06
3.87042e+06
3.8701e+06
3.86805e+06
3.86662e+06
3.86637e+06
3.86523e+06
3.86506e+06
3.86412e+06
3.86399e+06
3.86322e+06
3.8631e+06
3.86246e+06
3.86192e+06
3.86183e+06
3.86135e+06
3.86128e+06
3.86087e+06
3.86081e+06
3.86047e+06
3.86042e+06
3.86013e+06
3.86008e+06
3.85985e+06
3.85965e+06
3.85962e+06
3.85946e+06
3.85944e+06
3.85932e+06
3.8593e+06
3.85921e+06
3.85921e+06
3.85915e+06
3.85916e+06
3.85913e+06
3.85918e+06
3.85917e+06
3.85924e+06
3.85925e+06
3.85935e+06
3.85938e+06
3.85951e+06
3.85957e+06
3.85972e+06
3.85997e+06
3.85997e+06
3.86026e+06
3.86028e+06
3.86059e+06
3.86064e+06
3.86097e+06
3.86105e+06
3.8614e+06
3.86152e+06
3.86187e+06
3.86237e+06
3.8624e+06
3.86293e+06
3.86298e+06
3.86354e+06
3.86363e+06
3.86419e+06
3.86433e+06
3.8649e+06
3.86509e+06
3.86566e+06
3.86641e+06
3.86648e+06
3.86725e+06
3.86734e+06
4.52356e+06
4.52351e+06
4.52171e+06
4.52111e+06
4.51719e+06
4.51174e+06
4.51037e+06
4.50284e+06
4.50139e+06
4.49215e+06
4.49058e+06
4.48009e+06
4.47832e+06
4.46715e+06
4.46501e+06
4.45369e+06
4.44237e+06
4.43996e+06
4.42828e+06
4.42628e+06
4.41478e+06
4.41303e+06
4.40209e+06
4.40041e+06
4.39026e+06
4.38841e+06
4.37905e+06
4.36993e+06
4.36813e+06
4.35885e+06
4.35732e+06
4.34782e+06
4.34635e+06
4.33653e+06
4.33478e+06
4.32437e+06
4.31295e+06
4.31031e+06
4.29643e+06
4.29383e+06
4.27767e+06
4.27494e+06
4.25646e+06
4.25327e+06
4.23261e+06
4.22836e+06
4.20573e+06
4.18074e+06
4.17529e+06
4.1469e+06
4.14182e+06
4.11122e+06
4.10632e+06
4.07486e+06
4.06982e+06
4.03917e+06
4.0336e+06
4.0054e+06
3.97996e+06
3.97473e+06
3.95183e+06
3.94818e+06
3.92878e+06
3.92624e+06
3.91071e+06
3.90882e+06
3.89714e+06
3.88919e+06
3.88728e+06
3.8813e+06
3.88026e+06
3.87588e+06
3.8753e+06
3.87217e+06
3.8718e+06
3.86959e+06
3.86929e+06
3.86773e+06
3.86653e+06
3.8663e+06
3.86529e+06
3.86513e+06
3.86426e+06
3.86414e+06
3.8634e+06
3.86328e+06
3.86265e+06
3.86213e+06
3.86201e+06
3.86154e+06
3.86145e+06
3.86102e+06
3.86096e+06
3.86058e+06
3.86053e+06
3.8602e+06
3.86015e+06
3.85988e+06
3.85965e+06
3.8596e+06
3.8594e+06
3.85937e+06
3.8592e+06
3.85917e+06
3.85904e+06
3.85903e+06
3.85893e+06
3.85892e+06
3.85887e+06
3.85885e+06
3.85885e+06
3.85886e+06
3.85887e+06
3.85892e+06
3.85894e+06
3.85904e+06
3.85907e+06
3.8592e+06
3.85937e+06
3.85941e+06
3.85962e+06
3.85966e+06
3.85991e+06
3.85995e+06
3.86025e+06
3.86031e+06
3.86064e+06
3.86072e+06
3.86108e+06
3.86148e+06
3.86156e+06
3.86201e+06
3.86208e+06
3.86259e+06
3.86267e+06
3.86322e+06
3.86333e+06
3.86391e+06
3.86405e+06
3.86464e+06
3.8653e+06
3.86542e+06
3.86613e+06
3.86624e+06
4.51771e+06
4.51765e+06
4.51563e+06
4.5149e+06
4.51076e+06
4.50473e+06
4.50341e+06
4.49508e+06
4.49359e+06
4.48346e+06
4.48178e+06
4.47032e+06
4.46833e+06
4.45618e+06
4.45368e+06
4.44161e+06
4.42924e+06
4.42675e+06
4.414e+06
4.41191e+06
4.39939e+06
4.39748e+06
4.38561e+06
4.38366e+06
4.37273e+06
4.37043e+06
4.36066e+06
4.3505e+06
4.34871e+06
4.33829e+06
4.33666e+06
4.3259e+06
4.3241e+06
4.31289e+06
4.31049e+06
4.29882e+06
4.28509e+06
4.2824e+06
4.26622e+06
4.26347e+06
4.24511e+06
4.24208e+06
4.22148e+06
4.21773e+06
4.19514e+06
4.19006e+06
4.16628e+06
4.14001e+06
4.13456e+06
4.10571e+06
4.10077e+06
4.07066e+06
4.06598e+06
4.03604e+06
4.03146e+06
4.00313e+06
3.99857e+06
3.97399e+06
3.95349e+06
3.94915e+06
3.93092e+06
3.92812e+06
3.91301e+06
3.91117e+06
3.8993e+06
3.89807e+06
3.88913e+06
3.88384e+06
3.88236e+06
3.87815e+06
3.87739e+06
3.87417e+06
3.87375e+06
3.87134e+06
3.87106e+06
3.86926e+06
3.86903e+06
3.86768e+06
3.86664e+06
3.86642e+06
3.86548e+06
3.86533e+06
3.86449e+06
3.86437e+06
3.86363e+06
3.86352e+06
3.86288e+06
3.86235e+06
3.86222e+06
3.86172e+06
3.86163e+06
3.86117e+06
3.8611e+06
3.86068e+06
3.86062e+06
3.86025e+06
3.86018e+06
3.85987e+06
3.8596e+06
3.85955e+06
3.85929e+06
3.85926e+06
3.85903e+06
3.859e+06
3.85882e+06
3.8588e+06
3.85866e+06
3.85863e+06
3.85854e+06
3.85846e+06
3.85845e+06
3.85841e+06
3.85841e+06
3.85842e+06
3.85842e+06
3.85847e+06
3.85848e+06
3.85858e+06
3.85869e+06
3.85872e+06
3.85888e+06
3.85891e+06
3.85911e+06
3.85915e+06
3.8594e+06
3.85944e+06
3.85973e+06
3.85979e+06
3.86013e+06
3.86045e+06
3.86054e+06
3.86093e+06
3.86101e+06
3.86147e+06
3.86154e+06
3.86206e+06
3.86215e+06
3.86271e+06
3.86281e+06
3.86339e+06
3.864e+06
3.86413e+06
3.86481e+06
3.86492e+06
4.51198e+06
4.51185e+06
4.50963e+06
4.50884e+06
4.50423e+06
4.49766e+06
4.49616e+06
4.48724e+06
4.48561e+06
4.47468e+06
4.47284e+06
4.46043e+06
4.45823e+06
4.44502e+06
4.44229e+06
4.42903e+06
4.41567e+06
4.41298e+06
4.39932e+06
4.39707e+06
4.38362e+06
4.38152e+06
4.36869e+06
4.36651e+06
4.35457e+06
4.35205e+06
4.34121e+06
4.33021e+06
4.32823e+06
4.31676e+06
4.31492e+06
4.30279e+06
4.30068e+06
4.28768e+06
4.28488e+06
4.27093e+06
4.25572e+06
4.2525e+06
4.23502e+06
4.23199e+06
4.21207e+06
4.20874e+06
4.1865e+06
4.18242e+06
4.15828e+06
4.15303e+06
4.12798e+06
4.10177e+06
4.0964e+06
4.06855e+06
4.06387e+06
4.03568e+06
4.03134e+06
4.00432e+06
4.00013e+06
3.97575e+06
3.97153e+06
3.95123e+06
3.93415e+06
3.93092e+06
3.91647e+06
3.91436e+06
3.90278e+06
3.90133e+06
3.89252e+06
3.89144e+06
3.88507e+06
3.88075e+06
3.87979e+06
3.87649e+06
3.87594e+06
3.8734e+06
3.87306e+06
3.8711e+06
3.87084e+06
3.86932e+06
3.86909e+06
3.86789e+06
3.86688e+06
3.86668e+06
3.86575e+06
3.86561e+06
3.86477e+06
3.86465e+06
3.86391e+06
3.86379e+06
3.86314e+06
3.86257e+06
3.86244e+06
3.8619e+06
3.8618e+06
3.8613e+06
3.86122e+06
3.86076e+06
3.86069e+06
3.86027e+06
3.8602e+06
3.85984e+06
3.85952e+06
3.85945e+06
3.85915e+06
3.85911e+06
3.85883e+06
3.85879e+06
3.85855e+06
3.85852e+06
3.85833e+06
3.85829e+06
3.85814e+06
3.85801e+06
3.85799e+06
3.8579e+06
3.85789e+06
3.85784e+06
3.85784e+06
3.85783e+06
3.85783e+06
3.85786e+06
3.85791e+06
3.85793e+06
3.85804e+06
3.85807e+06
3.85821e+06
3.85824e+06
3.85843e+06
3.85846e+06
3.85869e+06
3.85874e+06
3.859e+06
3.8593e+06
3.85937e+06
3.85972e+06
3.85979e+06
3.8602e+06
3.86026e+06
3.86072e+06
3.8608e+06
3.8613e+06
3.8614e+06
3.86193e+06
3.86251e+06
3.86264e+06
3.8633e+06
3.8634e+06
4.5065e+06
4.50638e+06
4.50394e+06
4.50299e+06
4.49816e+06
4.49056e+06
4.4894e+06
4.4794e+06
4.47793e+06
4.46596e+06
4.46406e+06
4.45073e+06
4.44823e+06
4.43427e+06
4.43099e+06
4.41711e+06
4.40181e+06
4.39973e+06
4.3845e+06
4.38249e+06
4.36791e+06
4.36564e+06
4.35215e+06
4.34935e+06
4.33714e+06
4.3336e+06
4.32261e+06
4.30943e+06
4.30812e+06
4.2948e+06
4.29305e+06
4.27943e+06
4.27676e+06
4.26277e+06
4.25884e+06
4.24446e+06
4.22606e+06
4.22429e+06
4.20418e+06
4.20188e+06
4.18017e+06
4.17681e+06
4.15385e+06
4.14901e+06
4.12537e+06
4.11881e+06
4.09524e+06
4.06752e+06
4.0642e+06
4.0367e+06
4.03317e+06
4.00721e+06
4.00327e+06
3.97999e+06
3.97568e+06
3.95588e+06
3.95137e+06
3.93539e+06
3.92047e+06
3.91861e+06
3.90677e+06
3.90531e+06
3.8963e+06
3.8951e+06
3.88847e+06
3.88746e+06
3.88271e+06
3.87905e+06
3.87846e+06
3.87569e+06
3.8753e+06
3.87314e+06
3.87286e+06
3.87116e+06
3.87093e+06
3.86954e+06
3.86934e+06
3.86818e+06
3.86719e+06
3.86699e+06
3.86607e+06
3.86593e+06
3.86508e+06
3.86496e+06
3.86419e+06
3.86408e+06
3.86338e+06
3.86278e+06
3.86264e+06
3.86206e+06
3.86196e+06
3.86142e+06
3.86133e+06
3.86082e+06
3.86075e+06
3.86028e+06
3.8602e+06
3.85979e+06
3.85941e+06
3.85934e+06
3.85898e+06
3.85893e+06
3.8586e+06
3.85855e+06
3.85826e+06
3.85821e+06
3.85797e+06
3.85791e+06
3.85772e+06
3.85751e+06
3.8575e+06
3.85734e+06
3.85733e+06
3.85722e+06
3.8572e+06
3.85714e+06
3.8571e+06
3.85711e+06
3.85706e+06
3.85712e+06
3.85712e+06
3.85717e+06
3.85724e+06
3.85726e+06
3.85739e+06
3.85739e+06
3.8576e+06
3.85757e+06
3.85784e+06
3.85802e+06
3.85813e+06
3.85839e+06
3.85847e+06
3.85881e+06
3.85886e+06
3.85929e+06
3.8593e+06
3.85981e+06
3.85981e+06
3.86039e+06
3.86086e+06
3.86104e+06
3.86161e+06
3.86173e+06
4.50469e+06
4.50456e+06
4.50221e+06
4.50161e+06
4.49618e+06
4.48919e+06
4.48719e+06
4.47755e+06
4.4755e+06
4.46354e+06
4.46151e+06
4.44771e+06
4.44567e+06
4.4307e+06
4.42852e+06
4.41307e+06
4.39884e+06
4.39535e+06
4.38072e+06
4.37796e+06
4.36331e+06
4.3612e+06
4.34683e+06
4.3452e+06
4.33126e+06
4.32986e+06
4.31632e+06
4.30461e+06
4.30155e+06
4.28881e+06
4.28643e+06
4.27223e+06
4.27034e+06
4.25457e+06
4.25291e+06
4.2356e+06
4.22007e+06
4.21503e+06
4.19677e+06
4.19252e+06
4.17137e+06
4.16782e+06
4.14396e+06
4.14086e+06
4.11494e+06
4.1118e+06
4.08486e+06
4.06073e+06
4.05443e+06
4.02939e+06
4.02461e+06
3.99989e+06
3.99636e+06
3.97327e+06
3.97054e+06
3.95022e+06
3.94783e+06
3.93097e+06
3.91808e+06
3.91541e+06
3.90482e+06
3.9032e+06
3.89485e+06
3.89384e+06
3.88751e+06
3.88678e+06
3.88214e+06
3.87886e+06
3.87818e+06
3.8756e+06
3.87519e+06
3.87315e+06
3.87286e+06
3.87122e+06
3.87098e+06
3.86964e+06
3.8694e+06
3.86829e+06
3.86727e+06
3.8671e+06
3.86617e+06
3.86603e+06
3.86518e+06
3.86505e+06
3.86428e+06
3.86415e+06
3.86347e+06
3.86282e+06
3.86271e+06
3.8621e+06
3.86201e+06
3.86145e+06
3.86136e+06
3.86084e+06
3.86076e+06
3.86028e+06
3.8602e+06
3.85977e+06
3.85938e+06
3.8593e+06
3.85893e+06
3.85887e+06
3.85853e+06
3.85848e+06
3.85816e+06
3.85813e+06
3.85784e+06
3.85782e+06
3.85757e+06
3.85739e+06
3.85734e+06
3.85719e+06
3.85715e+06
3.85702e+06
3.85702e+06
3.85691e+06
3.85693e+06
3.85684e+06
3.85688e+06
3.85683e+06
3.85689e+06
3.85686e+06
3.85695e+06
3.85696e+06
3.85705e+06
3.8571e+06
3.85722e+06
3.85731e+06
3.85743e+06
3.85772e+06
3.8577e+06
3.85802e+06
3.85804e+06
3.85838e+06
3.85844e+06
3.8588e+06
3.85892e+06
3.85928e+06
3.85947e+06
3.85984e+06
3.86046e+06
3.86048e+06
3.86112e+06
3.86118e+06
4.49942e+06
4.49935e+06
4.49675e+06
4.49584e+06
4.49034e+06
4.48254e+06
4.48069e+06
4.46999e+06
4.46799e+06
4.45492e+06
4.45273e+06
4.43798e+06
4.43545e+06
4.41984e+06
4.41674e+06
4.40111e+06
4.3854e+06
4.38214e+06
4.36606e+06
4.36335e+06
4.34758e+06
4.34517e+06
4.33012e+06
4.32769e+06
4.31361e+06
4.31077e+06
4.29755e+06
4.2838e+06
4.28119e+06
4.2665e+06
4.26408e+06
4.24851e+06
4.24597e+06
4.22965e+06
4.22659e+06
4.20968e+06
4.19193e+06
4.18787e+06
4.16758e+06
4.16386e+06
4.14148e+06
4.1378e+06
4.11388e+06
4.1099e+06
4.08532e+06
4.08058e+06
4.05637e+06
4.03274e+06
4.02764e+06
4.00415e+06
4.00012e+06
3.97805e+06
3.9748e+06
3.95513e+06
3.95234e+06
3.93578e+06
3.93313e+06
3.92e+06
3.90949e+06
3.90745e+06
3.89895e+06
3.89768e+06
3.89106e+06
3.89022e+06
3.88521e+06
3.88456e+06
3.88088e+06
3.87822e+06
3.87763e+06
3.87545e+06
3.87508e+06
3.87326e+06
3.873e+06
3.87148e+06
3.87126e+06
3.86997e+06
3.86974e+06
3.86865e+06
3.86767e+06
3.86747e+06
3.86654e+06
3.86639e+06
3.86551e+06
3.86538e+06
3.86457e+06
3.86444e+06
3.86371e+06
3.86306e+06
3.86291e+06
3.86228e+06
3.86216e+06
3.86155e+06
3.86146e+06
3.86088e+06
3.8608e+06
3.86026e+06
3.86017e+06
3.85969e+06
3.85925e+06
3.85916e+06
3.85873e+06
3.85866e+06
3.85826e+06
3.8582e+06
3.85783e+06
3.85777e+06
3.85744e+06
3.85738e+06
3.8571e+06
3.85684e+06
3.85679e+06
3.85656e+06
3.85653e+06
3.85633e+06
3.8563e+06
3.85615e+06
3.85613e+06
3.85601e+06
3.85594e+06
3.85592e+06
3.85587e+06
3.85586e+06
3.85586e+06
3.85586e+06
3.8559e+06
3.85591e+06
3.856e+06
3.85602e+06
3.85614e+06
3.85629e+06
3.85632e+06
3.85652e+06
3.85656e+06
3.85681e+06
3.85686e+06
3.85718e+06
3.85724e+06
3.85762e+06
3.8577e+06
3.85811e+06
3.85857e+06
3.85866e+06
3.85919e+06
3.85928e+06
4.49419e+06
4.4941e+06
4.49122e+06
4.4902e+06
4.48431e+06
4.47587e+06
4.47397e+06
4.46238e+06
4.46029e+06
4.44621e+06
4.44387e+06
4.428e+06
4.42527e+06
4.40846e+06
4.4051e+06
4.3884e+06
4.37184e+06
4.36836e+06
4.35128e+06
4.34843e+06
4.33159e+06
4.32902e+06
4.31285e+06
4.3102e+06
4.2949e+06
4.29177e+06
4.27755e+06
4.26266e+06
4.25987e+06
4.24393e+06
4.24132e+06
4.22459e+06
4.22187e+06
4.20442e+06
4.20114e+06
4.18308e+06
4.16481e+06
4.16052e+06
4.13976e+06
4.13599e+06
4.1133e+06
4.10963e+06
4.08575e+06
4.08187e+06
4.05766e+06
4.05332e+06
4.02996e+06
4.00899e+06
4.00421e+06
3.9834e+06
3.97987e+06
3.96059e+06
3.95785e+06
3.94093e+06
3.93871e+06
3.92455e+06
3.92267e+06
3.91178e+06
3.90356e+06
3.9019e+06
3.89508e+06
3.89407e+06
3.8887e+06
3.88803e+06
3.88389e+06
3.88338e+06
3.88023e+06
3.87804e+06
3.8775e+06
3.87558e+06
3.87525e+06
3.87357e+06
3.87333e+06
3.87187e+06
3.87166e+06
3.87039e+06
3.87018e+06
3.86909e+06
3.8681e+06
3.8679e+06
3.86694e+06
3.86678e+06
3.86587e+06
3.86574e+06
3.86489e+06
3.86475e+06
3.86398e+06
3.86329e+06
3.86313e+06
3.86244e+06
3.86232e+06
3.86166e+06
3.86155e+06
3.86092e+06
3.86082e+06
3.86023e+06
3.86013e+06
3.85959e+06
3.8591e+06
3.859e+06
3.8585e+06
3.85842e+06
3.85796e+06
3.85789e+06
3.85745e+06
3.85738e+06
3.85698e+06
3.85691e+06
3.85657e+06
3.85625e+06
3.85618e+06
3.85588e+06
3.85584e+06
3.85557e+06
3.85553e+06
3.8553e+06
3.85526e+06
3.85507e+06
3.85492e+06
3.85489e+06
3.85477e+06
3.85475e+06
3.85467e+06
3.85466e+06
3.85461e+06
3.85461e+06
3.85461e+06
3.85461e+06
3.85465e+06
3.85473e+06
3.85475e+06
3.85487e+06
3.8549e+06
3.85508e+06
3.85511e+06
3.85535e+06
3.85539e+06
3.85568e+06
3.85575e+06
3.85609e+06
3.85648e+06
3.85657e+06
3.85705e+06
3.85713e+06
4.48913e+06
4.48896e+06
4.48585e+06
4.48476e+06
4.47834e+06
4.46919e+06
4.46714e+06
4.45483e+06
4.45259e+06
4.43764e+06
4.43512e+06
4.41828e+06
4.41531e+06
4.39751e+06
4.39385e+06
4.37613e+06
4.35828e+06
4.35476e+06
4.33667e+06
4.33372e+06
4.31593e+06
4.31315e+06
4.29605e+06
4.29305e+06
4.2768e+06
4.2732e+06
4.2579e+06
4.24181e+06
4.23891e+06
4.22211e+06
4.21942e+06
4.20198e+06
4.19902e+06
4.18091e+06
4.17725e+06
4.15866e+06
4.13927e+06
4.13525e+06
4.11411e+06
4.11049e+06
4.08798e+06
4.08437e+06
4.06129e+06
4.0574e+06
4.03472e+06
4.03032e+06
4.00922e+06
3.98942e+06
3.98556e+06
3.96698e+06
3.96404e+06
3.94738e+06
3.94501e+06
3.93082e+06
3.92878e+06
3.91731e+06
3.91542e+06
3.90666e+06
3.8996e+06
3.89835e+06
3.89268e+06
3.89187e+06
3.88741e+06
3.88683e+06
3.88337e+06
3.88288e+06
3.88023e+06
3.87815e+06
3.87771e+06
3.8759e+06
3.8756e+06
3.87401e+06
3.87377e+06
3.87236e+06
3.87215e+06
3.8709e+06
3.87068e+06
3.86958e+06
3.86855e+06
3.86835e+06
3.86736e+06
3.8672e+06
3.86625e+06
3.86611e+06
3.86522e+06
3.86507e+06
3.86425e+06
3.86351e+06
3.86334e+06
3.8626e+06
3.86247e+06
3.86175e+06
3.86164e+06
3.86095e+06
3.86084e+06
3.8602e+06
3.86008e+06
3.85949e+06
3.85893e+06
3.85881e+06
3.85826e+06
3.85817e+06
3.85764e+06
3.85756e+06
3.85706e+06
3.85697e+06
3.85651e+06
3.85642e+06
3.85601e+06
3.85561e+06
3.85555e+06
3.85517e+06
3.85511e+06
3.85477e+06
3.85472e+06
3.85441e+06
3.85435e+06
3.85409e+06
3.85385e+06
3.85381e+06
3.8536e+06
3.85358e+06
3.8534e+06
3.85338e+06
3.85325e+06
3.85323e+06
3.85314e+06
3.85311e+06
3.85307e+06
3.85305e+06
3.85307e+06
3.8531e+06
3.85312e+06
3.85321e+06
3.85322e+06
3.85337e+06
3.85339e+06
3.8536e+06
3.85362e+06
3.8539e+06
3.85422e+06
3.85431e+06
3.85472e+06
3.85479e+06
4.48433e+06
4.48419e+06
4.48083e+06
4.4796e+06
4.47289e+06
4.46256e+06
4.46095e+06
4.44742e+06
4.44543e+06
4.42933e+06
4.42683e+06
4.40903e+06
4.4058e+06
4.38728e+06
4.38311e+06
4.3648e+06
4.34487e+06
4.34219e+06
4.32242e+06
4.31984e+06
4.30088e+06
4.29797e+06
4.28016e+06
4.27653e+06
4.26001e+06
4.25537e+06
4.24004e+06
4.22186e+06
4.21995e+06
4.2018e+06
4.19942e+06
4.18129e+06
4.178e+06
4.1599e+06
4.15535e+06
4.13732e+06
4.11577e+06
4.11348e+06
4.09108e+06
4.08848e+06
4.06594e+06
4.06269e+06
4.04079e+06
4.03673e+06
4.01623e+06
4.01139e+06
3.99289e+06
3.97368e+06
3.97137e+06
3.95426e+06
3.95215e+06
3.93757e+06
3.93556e+06
3.92363e+06
3.92171e+06
3.9123e+06
3.91048e+06
3.90327e+06
3.89702e+06
3.89618e+06
3.89126e+06
3.89063e+06
3.88679e+06
3.88629e+06
3.88326e+06
3.88284e+06
3.88043e+06
3.87847e+06
3.87807e+06
3.87635e+06
3.87607e+06
3.87452e+06
3.8743e+06
3.87289e+06
3.87271e+06
3.87142e+06
3.87124e+06
3.87006e+06
3.86902e+06
3.8688e+06
3.86778e+06
3.86761e+06
3.86663e+06
3.86649e+06
3.86554e+06
3.86541e+06
3.86452e+06
3.86373e+06
3.86355e+06
3.86276e+06
3.86262e+06
3.86185e+06
3.86173e+06
3.86098e+06
3.86087e+06
3.86016e+06
3.86004e+06
3.85938e+06
3.85874e+06
3.85864e+06
3.85801e+06
3.85792e+06
3.85732e+06
3.85723e+06
3.85667e+06
3.85657e+06
3.85605e+06
3.85592e+06
3.85547e+06
3.85497e+06
3.85492e+06
3.85445e+06
3.8544e+06
3.85398e+06
3.8539e+06
3.85354e+06
3.85343e+06
3.85313e+06
3.85274e+06
3.85276e+06
3.85241e+06
3.85242e+06
3.85212e+06
3.8521e+06
3.85188e+06
3.85181e+06
3.85168e+06
3.85155e+06
3.85152e+06
3.85129e+06
3.85139e+06
3.85125e+06
3.8513e+06
3.85126e+06
3.85125e+06
3.85135e+06
3.85127e+06
3.85149e+06
3.85135e+06
3.8517e+06
3.85179e+06
3.85198e+06
3.85223e+06
3.85234e+06
4.48276e+06
4.4826e+06
4.47931e+06
4.47834e+06
4.47111e+06
4.46142e+06
4.45893e+06
4.44578e+06
4.44317e+06
4.4271e+06
4.42439e+06
4.40618e+06
4.4033e+06
4.38388e+06
4.38063e+06
4.36096e+06
4.34222e+06
4.33803e+06
4.31893e+06