/*--------------------------------*- C++ -*----------------------------------*\
  =========                 |
  \\      /  F ield         | OpenFOAM: The Open Source CFD Toolbox
   \\    /   O peration     | Website:  https://openfoam.org
    \\  /    A nd           | Version:  9
     \\/     M anipulation  |
\*---------------------------------------------------------------------------*/
FoamFile
{
    format      ascii;
    class       volScalarField;
    location    "0";
    object      promptHeatSource;
}
// * * * * * * * * * * * * * * * * * * * * * * * * * * * * * * * * * * * * * //

dimensions      [1 -1 -3 0 0 0 0];

internalField   nonuniform List<scalar> 
54384
(
2.50507e+08
2.50301e+08
2.5016e+08
2.50281e+08
2.49843e+08
2.49966e+08
2.49592e+08
2.49644e+08
2.49407e+08
2.49187e+08
2.49077e+08
2.48591e+08
2.48592e+08
2.47852e+08
2.47957e+08
2.4704e+08
2.46776e+08
2.46355e+08
2.45858e+08
2.45587e+08
2.44806e+08
2.44654e+08
2.43615e+08
2.43561e+08
2.42295e+08
2.42311e+08
2.41001e+08
2.40236e+08
2.39779e+08
2.38721e+08
2.38411e+08
2.37082e+08
2.36878e+08
2.35317e+08
2.35188e+08
2.33466e+08
2.32396e+08
2.31726e+08
2.30435e+08
2.29954e+08
2.2837e+08
2.28024e+08
2.26198e+08
2.25938e+08
2.23922e+08
2.23705e+08
2.21638e+08
2.20155e+08
2.19476e+08
2.17709e+08
2.17212e+08
2.15181e+08
2.14802e+08
2.12568e+08
2.12258e+08
2.0989e+08
2.09587e+08
2.07307e+08
2.05471e+08
2.04797e+08
2.02675e+08
2.02173e+08
1.99817e+08
1.99425e+08
1.96895e+08
1.9656e+08
1.93961e+08
1.921e+08
1.91209e+08
1.89074e+08
1.88422e+08
1.85981e+08
1.85484e+08
1.82824e+08
1.82413e+08
1.79637e+08
1.79253e+08
1.76575e+08
1.74249e+08
1.73459e+08
1.70689e+08
1.70029e+08
1.66998e+08
1.66426e+08
1.63251e+08
1.62692e+08
1.59479e+08
1.56871e+08
1.55806e+08
1.52954e+08
1.52139e+08
1.49014e+08
1.4835e+08
1.45045e+08
1.44443e+08
1.41043e+08
1.40423e+08
1.37069e+08
1.34367e+08
1.33388e+08
1.30452e+08
1.29714e+08
1.26562e+08
1.25946e+08
1.22662e+08
1.22062e+08
1.18744e+08
1.1805e+08
1.14871e+08
1.11866e+08
1.11012e+08
1.07735e+08
1.07026e+08
1.03612e+08
1.02963e+08
9.95211e+07
9.88419e+07
9.54864e+07
9.25644e+07
9.15659e+07
8.84276e+07
8.76514e+07
8.43497e+07
8.36879e+07
8.03306e+07
7.96909e+07
7.63792e+07
7.56717e+07
7.25327e+07
6.96433e+07
6.87964e+07
6.57364e+07
6.50601e+07
6.19278e+07
6.13263e+07
5.82244e+07
5.76155e+07
5.46423e+07
5.39404e+07
5.12181e+07
4.85743e+07
4.79006e+07
4.51855e+07
4.46552e+07
2.52706e+08
2.52692e+08
2.52645e+08
2.52685e+08
2.52474e+08
2.52393e+08
2.52226e+08
2.5202e+08
2.51893e+08
2.51559e+08
2.51479e+08
2.51017e+08
2.50981e+08
2.504e+08
2.50385e+08
2.49699e+08
2.49135e+08
2.48902e+08
2.48193e+08
2.48011e+08
2.47162e+08
2.47029e+08
2.46052e+08
2.45947e+08
2.44864e+08
2.44755e+08
2.43589e+08
2.42512e+08
2.42216e+08
2.40987e+08
2.40752e+08
2.39387e+08
2.39194e+08
2.3772e+08
2.37534e+08
2.35983e+08
2.34584e+08
2.34163e+08
2.32598e+08
2.32255e+08
2.30546e+08
2.30263e+08
2.28438e+08
2.28183e+08
2.2628e+08
2.26007e+08
2.24064e+08
2.22236e+08
2.21779e+08
2.19799e+08
2.19424e+08
2.17324e+08
2.17003e+08
2.14821e+08
2.14512e+08
2.12294e+08
2.11945e+08
2.09728e+08
2.07584e+08
2.07114e+08
2.04845e+08
2.04456e+08
2.02089e+08
2.01743e+08
1.99319e+08
1.98965e+08
1.96535e+08
1.94277e+08
1.93705e+08
1.9125e+08
1.90771e+08
1.88159e+08
1.8774e+08
1.85025e+08
1.84614e+08
1.81852e+08
1.81384e+08
1.78629e+08
1.75871e+08
1.7526e+08
1.72261e+08
1.71736e+08
1.6861e+08
1.68127e+08
1.64944e+08
1.64442e+08
1.61263e+08
1.58299e+08
1.57553e+08
1.5441e+08
1.53795e+08
1.50521e+08
1.49986e+08
1.46637e+08
1.46125e+08
1.42764e+08
1.42206e+08
1.38899e+08
1.35782e+08
1.35084e+08
1.31835e+08
1.31253e+08
1.27906e+08
1.27375e+08
1.23974e+08
1.23429e+08
1.2003e+08
1.19399e+08
1.16063e+08
1.12735e+08
1.12066e+08
1.08604e+08
1.08027e+08
1.04509e+08
1.03962e+08
1.00454e+08
9.98702e+07
9.6437e+07
9.31905e+07
9.2443e+07
8.90715e+07
8.84546e+07
8.50139e+07
8.44667e+07
8.10201e+07
8.04788e+07
7.70918e+07
7.64907e+07
7.32254e+07
7.00623e+07
6.94066e+07
6.61735e+07
6.5624e+07
6.23828e+07
6.18804e+07
5.86964e+07
5.81817e+07
5.51176e+07
5.4533e+07
5.16423e+07
4.87987e+07
4.82631e+07
4.5426e+07
4.49873e+07
2.53835e+08
2.53851e+08
2.53707e+08
2.53515e+08
2.53611e+08
2.53064e+08
2.53365e+08
2.52826e+08
2.52985e+08
2.52496e+08
2.52479e+08
2.52065e+08
2.5186e+08
2.51518e+08
2.51137e+08
2.50839e+08
2.49856e+08
2.50019e+08
2.49045e+08
2.49061e+08
2.48137e+08
2.47975e+08
2.47119e+08
2.4677e+08
2.45979e+08
2.45456e+08
2.44704e+08
2.43259e+08
2.43289e+08
2.41862e+08
2.41742e+08
2.40371e+08
2.40072e+08
2.38777e+08
2.38293e+08
2.37065e+08
2.35216e+08
2.35228e+08
2.33358e+08
2.33263e+08
2.31426e+08
2.31179e+08
2.29414e+08
2.2899e+08
2.27311e+08
2.26705e+08
2.25107e+08
2.22888e+08
2.22795e+08
2.20581e+08
2.20377e+08
2.18223e+08
2.17865e+08
2.1581e+08
2.15273e+08
2.1333e+08
2.12609e+08
2.10769e+08
2.0829e+08
2.08124e+08
2.0569e+08
2.05402e+08
2.03052e+08
2.02595e+08
2.00359e+08
1.99714e+08
1.97596e+08
1.94894e+08
1.94737e+08
1.91988e+08
1.91737e+08
1.88997e+08
1.88604e+08
1.85924e+08
1.85359e+08
1.82758e+08
1.82012e+08
1.79486e+08
1.76371e+08
1.76055e+08
1.72862e+08
1.72471e+08
1.69298e+08
1.68788e+08
1.65692e+08
1.65026e+08
1.62033e+08
1.58688e+08
1.58312e+08
1.54907e+08
1.54519e+08
1.51115e+08
1.50655e+08
1.4731e+08
1.46726e+08
1.43483e+08
1.42742e+08
1.3963e+08
1.36177e+08
1.35774e+08
1.32306e+08
1.31877e+08
1.28426e+08
1.27918e+08
1.24517e+08
1.2389e+08
1.20568e+08
1.19796e+08
1.16575e+08
1.13014e+08
1.12538e+08
1.08946e+08
1.08457e+08
1.04898e+08
1.04346e+08
1.00869e+08
1.00211e+08
9.68505e+07
9.33612e+07
9.28346e+07
8.9302e+07
8.88143e+07
8.52901e+07
8.47894e+07
8.13258e+07
8.0765e+07
7.74064e+07
7.67486e+07
7.35275e+07
7.01906e+07
6.96837e+07
6.63434e+07
6.58723e+07
6.25808e+07
6.20996e+07
5.89075e+07
5.83765e+07
5.53244e+07
5.47137e+07
5.18307e+07
4.88769e+07
4.84287e+07
4.55281e+07
4.51292e+07
2.57497e+08
2.57445e+08
2.57328e+08
2.57274e+08
2.5715e+08
2.56877e+08
2.569e+08
2.56594e+08
2.5658e+08
2.56203e+08
2.56147e+08
2.55694e+08
2.55585e+08
2.55067e+08
2.54899e+08
2.54344e+08
2.53633e+08
2.53552e+08
2.52762e+08
2.52656e+08
2.51776e+08
2.51625e+08
2.50668e+08
2.50456e+08
2.49447e+08
2.49154e+08
2.48145e+08
2.46941e+08
2.46765e+08
2.45463e+08
2.45266e+08
2.43878e+08
2.4363e+08
2.42184e+08
2.41863e+08
2.404e+08
2.38823e+08
2.38557e+08
2.36886e+08
2.36631e+08
2.34866e+08
2.34587e+08
2.32758e+08
2.32421e+08
2.30567e+08
2.3014e+08
2.28323e+08
2.26369e+08
2.26039e+08
2.23994e+08
2.23679e+08
2.21565e+08
2.21219e+08
2.19078e+08
2.18664e+08
2.16547e+08
2.16023e+08
2.13995e+08
2.11776e+08
2.11416e+08
2.0912e+08
2.08765e+08
2.06407e+08
2.06002e+08
2.03621e+08
2.03124e+08
2.00775e+08
1.98314e+08
1.97869e+08
1.95257e+08
1.94843e+08
1.92102e+08
1.91667e+08
1.88851e+08
1.88344e+08
1.8551e+08
1.84882e+08
1.821e+08
1.79141e+08
1.78614e+08
1.75518e+08
1.75027e+08
1.71852e+08
1.71338e+08
1.68145e+08
1.6755e+08
1.64409e+08
1.61296e+08
1.60658e+08
1.57416e+08
1.56868e+08
1.53525e+08
1.53002e+08
1.49619e+08
1.49054e+08
1.45697e+08
1.45029e+08
1.4177e+08
1.38476e+08
1.37846e+08
1.34431e+08
1.33874e+08
1.30377e+08
1.29824e+08
1.26308e+08
1.25695e+08
1.22227e+08
1.21491e+08
1.18151e+08
1.14697e+08
1.14069e+08
1.10516e+08
1.0995e+08
1.06362e+08
1.05788e+08
1.02232e+08
1.01584e+08
9.81322e+07
9.47733e+07
9.40654e+07
9.06004e+07
9.0005e+07
8.6483e+07
8.59305e+07
8.24183e+07
8.18422e+07
7.84085e+07
7.77461e+07
7.44614e+07
7.12058e+07
7.05694e+07
6.72523e+07
6.67082e+07
6.33915e+07
6.28744e+07
5.96273e+07
5.90782e+07
5.59668e+07
5.53293e+07
5.24159e+07
4.94967e+07
4.89651e+07
4.60579e+07
4.56167e+07
2.61873e+08
2.61823e+08
2.61734e+08
2.61738e+08
2.61507e+08
2.61384e+08
2.61253e+08
2.61059e+08
2.60972e+08
2.60629e+08
2.60559e+08
2.60088e+08
2.60021e+08
2.59426e+08
2.5936e+08
2.58654e+08
2.58096e+08
2.579e+08
2.57174e+08
2.5702e+08
2.56141e+08
2.55996e+08
2.54989e+08
2.54837e+08
2.53713e+08
2.53544e+08
2.52385e+08
2.51291e+08
2.51028e+08
2.49749e+08
2.49524e+08
2.48105e+08
2.47883e+08
2.46355e+08
2.46112e+08
2.44504e+08
2.43077e+08
2.42671e+08
2.41069e+08
2.4075e+08
2.38985e+08
2.38699e+08
2.36824e+08
2.36531e+08
2.34582e+08
2.34255e+08
2.32299e+08
2.30493e+08
2.3006e+08
2.28069e+08
2.27715e+08
2.256e+08
2.25269e+08
2.23084e+08
2.22738e+08
2.20522e+08
2.2012e+08
2.17989e+08
2.15875e+08
2.15442e+08
2.13153e+08
2.12776e+08
2.10364e+08
2.09982e+08
2.0749e+08
2.07052e+08
2.04535e+08
2.02144e+08
2.01568e+08
1.98931e+08
1.98454e+08
1.95631e+08
1.95181e+08
1.92246e+08
1.91765e+08
1.88779e+08
1.88213e+08
1.85281e+08
1.82387e+08
1.81772e+08
1.78661e+08
1.78138e+08
1.74905e+08
1.74397e+08
1.71115e+08
1.70558e+08
1.67297e+08
1.6429e+08
1.63519e+08
1.60295e+08
1.59688e+08
1.56296e+08
1.55753e+08
1.52285e+08
1.51732e+08
1.4826e+08
1.47626e+08
1.44239e+08
1.40988e+08
1.4026e+08
1.36795e+08
1.36194e+08
1.32608e+08
1.32045e+08
1.2842e+08
1.27823e+08
1.24236e+08
1.2353e+08
1.20103e+08
1.16668e+08
1.1598e+08
1.12378e+08
1.11789e+08
1.08122e+08
1.07548e+08
1.03897e+08
1.03265e+08
9.97117e+07
9.641e+07
9.56106e+07
9.21232e+07
9.14898e+07
8.79013e+07
8.73357e+07
8.37382e+07
8.31649e+07
7.96354e+07
7.8982e+07
7.56184e+07
7.23799e+07
7.16872e+07
6.83185e+07
6.77507e+07
6.43573e+07
6.38327e+07
6.0498e+07
5.99498e+07
5.67501e+07
5.6109e+07
5.31483e+07
5.02058e+07
4.96413e+07
4.66717e+07
4.62181e+07
2.66856e+08
2.66865e+08
2.66814e+08
2.6681e+08
2.66674e+08
2.66496e+08
2.66422e+08
2.66127e+08
2.66049e+08
2.65671e+08
2.65599e+08
2.65135e+08
2.65066e+08
2.64528e+08
2.64433e+08
2.6383e+08
2.63153e+08
2.62987e+08
2.62186e+08
2.62031e+08
2.61127e+08
2.6098e+08
2.59986e+08
2.59823e+08
2.58769e+08
2.58548e+08
2.5744e+08
2.56222e+08
2.55969e+08
2.54628e+08
2.54398e+08
2.52959e+08
2.52731e+08
2.51226e+08
2.50961e+08
2.49433e+08
2.47893e+08
2.47525e+08
2.45825e+08
2.45506e+08
2.43702e+08
2.43411e+08
2.41538e+08
2.41239e+08
2.39345e+08
2.38982e+08
2.37109e+08
2.35188e+08
2.34777e+08
2.32731e+08
2.32376e+08
2.30254e+08
2.29921e+08
2.27766e+08
2.27406e+08
2.25272e+08
2.24813e+08
2.22715e+08
2.20473e+08
2.20044e+08
2.17671e+08
2.17281e+08
2.1481e+08
2.14412e+08
2.11888e+08
2.11414e+08
2.08894e+08
2.0633e+08
2.05761e+08
2.02979e+08
2.02486e+08
1.99567e+08
1.991e+08
1.96104e+08
1.95606e+08
1.92605e+08
1.91997e+08
1.8906e+08
1.86021e+08
1.8541e+08
1.82205e+08
1.8167e+08
1.78376e+08
1.77856e+08
1.7454e+08
1.7396e+08
1.70702e+08
1.67571e+08
1.66822e+08
1.63469e+08
1.62851e+08
1.5937e+08
1.58812e+08
1.55276e+08
1.54707e+08
1.51192e+08
1.50529e+08
1.47116e+08
1.43721e+08
1.42993e+08
1.39416e+08
1.38799e+08
1.35132e+08
1.34554e+08
1.30871e+08
1.30257e+08
1.26642e+08
1.25899e+08
1.22431e+08
1.18874e+08
1.1818e+08
1.14492e+08
1.13888e+08
1.10155e+08
1.09567e+08
1.05866e+08
1.05213e+08
1.01631e+08
9.82139e+07
9.74202e+07
9.38321e+07
9.31862e+07
8.95209e+07
8.89404e+07
8.52792e+07
8.469e+07
8.11122e+07
8.04331e+07
7.70242e+07
7.36732e+07
7.29737e+07
6.95186e+07
6.8936e+07
6.54695e+07
6.49297e+07
6.15311e+07
6.09649e+07
5.77131e+07
5.7045e+07
5.40155e+07
5.09795e+07
5.04027e+07
4.73581e+07
4.68901e+07
2.72248e+08
2.72242e+08
2.72238e+08
2.72349e+08
2.72043e+08
2.721e+08
2.71785e+08
2.71665e+08
2.7145e+08
2.71146e+08
2.71047e+08
2.70555e+08
2.7057e+08
2.69898e+08
2.69998e+08
2.69162e+08
2.68689e+08
2.6833e+08
2.67652e+08
2.67405e+08
2.66523e+08
2.66394e+08
2.65318e+08
2.65284e+08
2.6404e+08
2.64057e+08
2.62673e+08
2.61614e+08
2.61208e+08
2.5994e+08
2.59659e+08
2.58195e+08
2.58025e+08
2.56395e+08
2.56295e+08
2.54537e+08
2.53171e+08
2.52607e+08
2.51033e+08
2.50604e+08
2.48843e+08
2.48543e+08
2.46622e+08
2.4642e+08
2.44379e+08
2.44223e+08
2.42102e+08
2.40345e+08
2.39776e+08
2.37834e+08
2.37409e+08
2.35301e+08
2.34998e+08
2.32755e+08
2.32527e+08
2.30188e+08
2.2997e+08
2.27563e+08
2.2542e+08
2.24856e+08
2.22493e+08
2.22058e+08
2.19498e+08
2.19152e+08
2.16437e+08
2.16116e+08
2.133e+08
2.10799e+08
2.10065e+08
2.07316e+08
2.06729e+08
2.03777e+08
2.03303e+08
2.00198e+08
1.99781e+08
1.96588e+08
1.96156e+08
1.92933e+08
1.89946e+08
1.89216e+08
1.86025e+08
1.85436e+08
1.82089e+08
1.8159e+08
1.78146e+08
1.77668e+08
1.7419e+08
1.71073e+08
1.70201e+08
1.66865e+08
1.66162e+08
1.62655e+08
1.6207e+08
1.58449e+08
1.57922e+08
1.54252e+08
1.53706e+08
1.50053e+08
1.4665e+08
1.4583e+08
1.42243e+08
1.41572e+08
1.37856e+08
1.37277e+08
1.33496e+08
1.32938e+08
1.29161e+08
1.28546e+08
1.24835e+08
1.21258e+08
1.205e+08
1.16783e+08
1.16149e+08
1.12351e+08
1.11776e+08
1.07965e+08
1.07377e+08
1.03621e+08
1.00143e+08
9.93007e+07
9.56759e+07
9.49881e+07
9.12733e+07
9.06798e+07
8.69392e+07
8.63727e+07
8.26752e+07
8.20635e+07
7.84739e+07
7.50521e+07
7.43197e+07
7.08107e+07
7.02034e+07
6.66705e+07
6.61274e+07
6.26392e+07
6.20957e+07
5.87196e+07
5.81128e+07
5.49068e+07
5.1792e+07
5.11971e+07
4.80848e+07
4.76008e+07
2.74159e+08
2.74177e+08
2.74006e+08
2.73756e+08
2.73917e+08
2.7325e+08
2.73664e+08
2.73042e+08
2.73267e+08
2.72735e+08
2.72728e+08
2.72311e+08
2.72058e+08
2.71751e+08
2.7127e+08
2.71042e+08
2.69931e+08
2.70181e+08
2.69109e+08
2.69161e+08
2.6817e+08
2.67987e+08
2.671e+08
2.66673e+08
2.65883e+08
2.65232e+08
2.64516e+08
2.62908e+08
2.62995e+08
2.61437e+08
2.61323e+08
2.59858e+08
2.5951e+08
2.5816e+08
2.57574e+08
2.56337e+08
2.54297e+08
2.54387e+08
2.52366e+08
2.52309e+08
2.50368e+08
2.50109e+08
2.48293e+08
2.47802e+08
2.46129e+08
2.45405e+08
2.43868e+08
2.41525e+08
2.41508e+08
2.39216e+08
2.39044e+08
2.36857e+08
2.36475e+08
2.34427e+08
2.33811e+08
2.31901e+08
2.31054e+08
2.29257e+08
2.2661e+08
2.26476e+08
2.23849e+08
2.23542e+08
2.20978e+08
2.20455e+08
2.17977e+08
2.17222e+08
2.14838e+08
2.11748e+08
2.11556e+08
2.08424e+08
2.0813e+08
2.05022e+08
2.04566e+08
2.01538e+08
2.00879e+08
1.97964e+08
1.97085e+08
1.94294e+08
1.9084e+08
1.90524e+08
1.87058e+08
1.86646e+08
1.83233e+08
1.82665e+08
1.79352e+08
1.78591e+08
1.75405e+08
1.71766e+08
1.71383e+08
1.67688e+08
1.67277e+08
1.63588e+08
1.63083e+08
1.5946e+08
1.58806e+08
1.55296e+08
1.54457e+08
1.51085e+08
1.47275e+08
1.46819e+08
1.42973e+08
1.4249e+08
1.3867e+08
1.38096e+08
1.3436e+08
1.33643e+08
1.30033e+08
1.29142e+08
1.25684e+08
1.21803e+08
1.21301e+08
1.17407e+08
1.16877e+08
1.13032e+08
1.12414e+08
1.08671e+08
1.0792e+08
1.04317e+08
1.00521e+08
9.99631e+07
9.61236e+07
9.55995e+07
9.17745e+07
9.12231e+07
8.74708e+07
8.68388e+07
8.32086e+07
8.24555e+07
7.8984e+07
7.53404e+07
7.47912e+07
7.11417e+07
7.06246e+07
6.70277e+07
6.64892e+07
6.30016e+07
6.23974e+07
5.90653e+07
5.83626e+07
5.52205e+07
5.19692e+07
5.14713e+07
4.82785e+07
4.78335e+07
2.80014e+08
2.79954e+08
2.79831e+08
2.79779e+08
2.79631e+08
2.79362e+08
2.79373e+08
2.79079e+08
2.79061e+08
2.7868e+08
2.78622e+08
2.7815e+08
2.78038e+08
2.77483e+08
2.77315e+08
2.76715e+08
2.75988e+08
2.75891e+08
2.75069e+08
2.74954e+08
2.74019e+08
2.73857e+08
2.72825e+08
2.726e+08
2.71497e+08
2.71193e+08
2.70094e+08
2.6882e+08
2.68622e+08
2.67231e+08
2.67017e+08
2.65524e+08
2.65259e+08
2.63697e+08
2.6336e+08
2.61782e+08
2.60136e+08
2.59837e+08
2.581e+08
2.57828e+08
2.55989e+08
2.55698e+08
2.53794e+08
2.53445e+08
2.51518e+08
2.51084e+08
2.49206e+08
2.47229e+08
2.46884e+08
2.44806e+08
2.44483e+08
2.42316e+08
2.4196e+08
2.39739e+08
2.39308e+08
2.37076e+08
2.36524e+08
2.34361e+08
2.31964e+08
2.31563e+08
2.2901e+08
2.28608e+08
2.25937e+08
2.25478e+08
2.22741e+08
2.2218e+08
2.19452e+08
2.1665e+08
2.16106e+08
2.13142e+08
2.12658e+08
2.09559e+08
2.09066e+08
2.05896e+08
2.05335e+08
2.02162e+08
2.01475e+08
1.98391e+08
1.95173e+08
1.94584e+08
1.91216e+08
1.90678e+08
1.87214e+08
1.86652e+08
1.83159e+08
1.8251e+08
1.79066e+08
1.75686e+08
1.74963e+08
1.71426e+08
1.70814e+08
1.6715e+08
1.66571e+08
1.62848e+08
1.62228e+08
1.58521e+08
1.57791e+08
1.54189e+08
1.50578e+08
1.4986e+08
1.46102e+08
1.45481e+08
1.41632e+08
1.41024e+08
1.3716e+08
1.36491e+08
1.32692e+08
1.31887e+08
1.28247e+08
1.24498e+08
1.23805e+08
1.19938e+08
1.19318e+08
1.15404e+08
1.14776e+08
1.10893e+08
1.10185e+08
1.06416e+08
1.02771e+08
1.01982e+08
9.8207e+07
9.75513e+07
9.37011e+07
9.30951e+07
8.92478e+07
8.86154e+07
8.48493e+07
8.41193e+07
8.05187e+07
7.69569e+07
7.62474e+07
7.25998e+07
7.19973e+07
6.8336e+07
6.77634e+07
6.41685e+07
6.35583e+07
6.01074e+07
5.93934e+07
5.61646e+07
5.29241e+07
5.23264e+07
4.90879e+07
4.8595e+07
2.86351e+08
2.86324e+08
2.86245e+08
2.86237e+08
2.86041e+08
2.85881e+08
2.85783e+08
2.85541e+08
2.85467e+08
2.85097e+08
2.85027e+08
2.84545e+08
2.84467e+08
2.83877e+08
2.83782e+08
2.83088e+08
2.82452e+08
2.82274e+08
2.81468e+08
2.81314e+08
2.80365e+08
2.80209e+08
2.79142e+08
2.78964e+08
2.77795e+08
2.77576e+08
2.76372e+08
2.75141e+08
2.74878e+08
2.73477e+08
2.73239e+08
2.71716e+08
2.71472e+08
2.69861e+08
2.69584e+08
2.67918e+08
2.66376e+08
2.65978e+08
2.64262e+08
2.63941e+08
2.62088e+08
2.6179e+08
2.59852e+08
2.5954e+08
2.57555e+08
2.57192e+08
2.55217e+08
2.53309e+08
2.52889e+08
2.50793e+08
2.50435e+08
2.48217e+08
2.47865e+08
2.45565e+08
2.4517e+08
2.42827e+08
2.42333e+08
2.40043e+08
2.37604e+08
2.37138e+08
2.34494e+08
2.34065e+08
2.31285e+08
2.30836e+08
2.27979e+08
2.27453e+08
2.2459e+08
2.21813e+08
2.21177e+08
2.1815e+08
2.17619e+08
2.14432e+08
2.13928e+08
2.10655e+08
2.10114e+08
2.06826e+08
2.06176e+08
2.02979e+08
1.99748e+08
1.99091e+08
1.95642e+08
1.95072e+08
1.91507e+08
1.90945e+08
1.87338e+08
1.86711e+08
1.83143e+08
1.79802e+08
1.78975e+08
1.75381e+08
1.7472e+08
1.70959e+08
1.70361e+08
1.6653e+08
1.65915e+08
1.62091e+08
1.61382e+08
1.57664e+08
1.54057e+08
1.53269e+08
1.4943e+08
1.48774e+08
1.44823e+08
1.44205e+08
1.40229e+08
1.39568e+08
1.35652e+08
1.34861e+08
1.31134e+08
1.27342e+08
1.266e+08
1.22636e+08
1.21994e+08
1.1797e+08
1.17339e+08
1.13341e+08
1.1264e+08
1.08758e+08
1.0512e+08
1.04258e+08
1.00406e+08
9.97164e+07
9.57613e+07
9.51403e+07
9.11798e+07
9.05455e+07
8.6663e+07
8.59334e+07
8.22354e+07
7.86422e+07
7.78855e+07
7.41391e+07
7.35127e+07
6.97378e+07
6.91539e+07
6.54395e+07
6.48241e+07
6.12548e+07
6.05285e+07
5.72237e+07
5.39049e+07
5.32751e+07
4.99262e+07
4.9417e+07
2.93016e+08
2.93051e+08
2.93021e+08
2.93023e+08
2.92892e+08
2.92727e+08
2.92636e+08
2.92328e+08
2.9224e+08
2.91848e+08
2.91772e+08
2.91295e+08
2.91228e+08
2.90676e+08
2.90586e+08
2.89952e+08
2.89237e+08
2.89052e+08
2.88193e+08
2.88021e+08
2.87052e+08
2.86896e+08
2.85832e+08
2.85664e+08
2.84533e+08
2.84309e+08
2.831e+08
2.81782e+08
2.81501e+08
2.80055e+08
2.79804e+08
2.78265e+08
2.78027e+08
2.76432e+08
2.76161e+08
2.74546e+08
2.72931e+08
2.72534e+08
2.70748e+08
2.70407e+08
2.68523e+08
2.68219e+08
2.66275e+08
2.65969e+08
2.6401e+08
2.63642e+08
2.61686e+08
2.59666e+08
2.59231e+08
2.57057e+08
2.56676e+08
2.54399e+08
2.54039e+08
2.51694e+08
2.51297e+08
2.48927e+08
2.48418e+08
2.46026e+08
2.4345e+08
2.4295e+08
2.40203e+08
2.39748e+08
2.36887e+08
2.3643e+08
2.33518e+08
2.32984e+08
2.30082e+08
2.27166e+08
2.2651e+08
2.23371e+08
2.22809e+08
2.19539e+08
2.19017e+08
2.1568e+08
2.15131e+08
2.11801e+08
2.11136e+08
2.07867e+08
2.04496e+08
2.03814e+08
2.00263e+08
1.99666e+08
1.96019e+08
1.95442e+08
1.91772e+08
1.91135e+08
1.87521e+08
1.84048e+08
1.83212e+08
1.79495e+08
1.78805e+08
1.74952e+08
1.74331e+08
1.70423e+08
1.69796e+08
1.65913e+08
1.65188e+08
1.61409e+08
1.57656e+08
1.56849e+08
1.52903e+08
1.52219e+08
1.48181e+08
1.47544e+08
1.43495e+08
1.4282e+08
1.38846e+08
1.38036e+08
1.34206e+08
1.30286e+08
1.29519e+08
1.25459e+08
1.24792e+08
1.20685e+08
1.20036e+08
1.15966e+08
1.15248e+08
1.11301e+08
1.07522e+08
1.06648e+08
1.02685e+08
1.0197e+08
9.79242e+07
9.72809e+07
9.32381e+07
9.2586e+07
8.86306e+07
8.78807e+07
8.40949e+07
8.03632e+07
7.95862e+07
7.5738e+07
7.50867e+07
7.12185e+07
7.06131e+07
6.68096e+07
6.6173e+07
6.25181e+07
6.17679e+07
5.83364e+07
5.48921e+07
5.42386e+07
5.07835e+07
5.02502e+07
2.99811e+08
2.99792e+08
2.99822e+08
3.00016e+08
2.99593e+08
2.99811e+08
2.99331e+08
2.99328e+08
2.99012e+08
2.98756e+08
2.98635e+08
2.98109e+08
2.98184e+08
2.97397e+08
2.97629e+08
2.96615e+08
2.96249e+08
2.95745e+08
2.95109e+08
2.94787e+08
2.93866e+08
2.9374e+08
2.92538e+08
2.92585e+08
2.9114e+08
2.91301e+08
2.89665e+08
2.88639e+08
2.88108e+08
2.86811e+08
2.8648e+08
2.84917e+08
2.84779e+08
2.82981e+08
2.82989e+08
2.81008e+08
2.7971e+08
2.78984e+08
2.77433e+08
2.76909e+08
2.75105e+08
2.74787e+08
2.72746e+08
2.72603e+08
2.70367e+08
2.70333e+08
2.67954e+08
2.66194e+08
2.65484e+08
2.63451e+08
2.62947e+08
2.60642e+08
2.60324e+08
2.57773e+08
2.57584e+08
2.5484e+08
2.54699e+08
2.51821e+08
2.49411e+08
2.48703e+08
2.45998e+08
2.45483e+08
2.42516e+08
2.42153e+08
2.38981e+08
2.38696e+08
2.35393e+08
2.32642e+08
2.31737e+08
2.28706e+08
2.28007e+08
2.24723e+08
2.24199e+08
2.2071e+08
2.20299e+08
2.16674e+08
2.1629e+08
2.12603e+08
2.0935e+08
2.08481e+08
2.04975e+08
2.04299e+08
2.00582e+08
2.00048e+08
1.96183e+08
1.95715e+08
1.91777e+08
1.88379e+08
1.87348e+08
1.837e+08
1.8288e+08
1.79018e+08
1.78366e+08
1.74345e+08
1.73796e+08
1.69687e+08
1.69155e+08
1.65037e+08
1.61327e+08
1.60373e+08
1.56448e+08
1.55684e+08
1.51592e+08
1.50961e+08
1.46766e+08
1.46192e+08
1.41971e+08
1.41367e+08
1.37194e+08
1.33283e+08
1.32416e+08
1.28333e+08
1.27625e+08
1.23428e+08
1.22812e+08
1.18574e+08
1.1797e+08
1.13766e+08
1.09948e+08
1.08988e+08
1.05001e+08
1.04224e+08
1.0012e+08
9.94644e+07
9.53079e+07
9.47026e+07
9.05684e+07
8.99327e+07
8.58932e+07
8.2097e+07
8.12662e+07
7.73583e+07
7.66745e+07
7.27163e+07
7.21149e+07
6.81783e+07
6.75872e+07
6.37463e+07
6.30937e+07
5.94162e+07
5.58681e+07
5.5188e+07
5.16293e+07
5.10773e+07
3.02151e+08
3.02151e+08
3.01977e+08
3.01739e+08
3.01872e+08
3.01226e+08
3.01616e+08
3.01019e+08
3.01227e+08
3.00703e+08
3.00691e+08
3.00255e+08
3.00007e+08
2.99656e+08
2.99187e+08
2.98905e+08
2.97783e+08
2.98002e+08
2.96903e+08
2.96935e+08
2.95887e+08
2.95693e+08
2.94718e+08
2.94287e+08
2.93392e+08
2.92736e+08
2.91917e+08
2.90248e+08
2.90299e+08
2.88665e+08
2.88528e+08
2.86973e+08
2.86611e+08
2.85159e+08
2.84565e+08
2.83226e+08
2.8113e+08
2.81181e+08
2.79101e+08
2.79016e+08
2.77e+08
2.76722e+08
2.74807e+08
2.74303e+08
2.7251e+08
2.71774e+08
2.70104e+08
2.67651e+08
2.67581e+08
2.65132e+08
2.64914e+08
2.62507e+08
2.62085e+08
2.59751e+08
2.59097e+08
2.56848e+08
2.55955e+08
2.53799e+08
2.50826e+08
2.50595e+08
2.47601e+08
2.4722e+08
2.4426e+08
2.43678e+08
2.40796e+08
2.39987e+08
2.37212e+08
2.33807e+08
2.3351e+08
2.30052e+08
2.29678e+08
2.26226e+08
2.25706e+08
2.22316e+08
2.21602e+08
2.18317e+08
2.17377e+08
2.14228e+08
2.10454e+08
2.10043e+08
2.06231e+08
2.05744e+08
2.01959e+08
2.01327e+08
1.97626e+08
1.96802e+08
1.93228e+08
1.89258e+08
1.88763e+08
1.84718e+08
1.8422e+08
1.80158e+08
1.79581e+08
1.7557e+08
1.7485e+08
1.70945e+08
1.70035e+08
1.6628e+08
1.62125e+08
1.61569e+08
1.57357e+08
1.56794e+08
1.5259e+08
1.51946e+08
1.47816e+08
1.4703e+08
1.43027e+08
1.42054e+08
1.3822e+08
1.33979e+08
1.33385e+08
1.2911e+08
1.28504e+08
1.24262e+08
1.23574e+08
1.19429e+08
1.18603e+08
1.14607e+08
1.10453e+08
1.0979e+08
1.05572e+08
1.04963e+08
1.00741e+08
1.00117e+08
9.59566e+07
9.52521e+07
9.12135e+07
9.03775e+07
8.65098e+07
8.24839e+07
8.18374e+07
7.77808e+07
7.71826e+07
7.31582e+07
7.25442e+07
6.86172e+07
6.79321e+07
6.4159e+07
6.33586e+07
5.97867e+07
5.60992e+07
5.55054e+07
5.18606e+07
5.1338e+07
3.09217e+08
3.09154e+08
3.09037e+08
3.08999e+08
3.08819e+08
3.08588e+08
3.0856e+08
3.08297e+08
3.08261e+08
3.07885e+08
3.07822e+08
3.07334e+08
3.07228e+08
3.0663e+08
3.06482e+08
3.05816e+08
3.0509e+08
3.04956e+08
3.04105e+08
3.0397e+08
3.02974e+08
3.02803e+08
3.01684e+08
3.0146e+08
3.00247e+08
2.99956e+08
2.9874e+08
2.97416e+08
2.97181e+08
2.95716e+08
2.95483e+08
2.93901e+08
2.93628e+08
2.91962e+08
2.91629e+08
2.89933e+08
2.88244e+08
2.87892e+08
2.86088e+08
2.85785e+08
2.83851e+08
2.83542e+08
2.81516e+08
2.81157e+08
2.79078e+08
2.78637e+08
2.7658e+08
2.74458e+08
2.74051e+08
2.7176e+08
2.71389e+08
2.68946e+08
2.68545e+08
2.65996e+08
2.6552e+08
2.62919e+08
2.62315e+08
2.59776e+08
2.57034e+08
2.56543e+08
2.53608e+08
2.53139e+08
2.5007e+08
2.49555e+08
2.46419e+08
2.45805e+08
2.42689e+08
2.39579e+08
2.3893e+08
2.35627e+08
2.35069e+08
2.31606e+08
2.31054e+08
2.27505e+08
2.2689e+08
2.23331e+08
2.22586e+08
2.19127e+08
2.15575e+08
2.14894e+08
2.11154e+08
2.10547e+08
2.06687e+08
2.06066e+08
2.02168e+08
2.0146e+08
1.97612e+08
1.93902e+08
1.9306e+08
1.89158e+08
1.88463e+08
1.84404e+08
1.83759e+08
1.79627e+08
1.78945e+08
1.74826e+08
1.7403e+08
1.70027e+08
1.66063e+08
1.65243e+08
1.61098e+08
1.60401e+08
1.56141e+08
1.55467e+08
1.51185e+08
1.50451e+08
1.46235e+08
1.45355e+08
1.41319e+08
1.37194e+08
1.36411e+08
1.32134e+08
1.31444e+08
1.27105e+08
1.26413e+08
1.22103e+08
1.21325e+08
1.17139e+08
1.1313e+08
1.12231e+08
1.08056e+08
1.07319e+08
1.03045e+08
1.02371e+08
9.80895e+07
9.73893e+07
9.31908e+07
9.23821e+07
8.83662e+07
8.44099e+07
8.36026e+07
7.95228e+07
7.88428e+07
7.47252e+07
7.40803e+07
7.00162e+07
6.9327e+07
6.54047e+07
6.45902e+07
6.09063e+07
5.71934e+07
5.64982e+07
5.27583e+07
5.21872e+07
3.16604e+08
3.16603e+08
3.16538e+08
3.16518e+08
3.16383e+08
3.16177e+08
3.16131e+08
3.15823e+08
3.15764e+08
3.1537e+08
3.15301e+08
3.14813e+08
3.14725e+08
3.14152e+08
3.14024e+08
3.13391e+08
3.12627e+08
3.12471e+08
3.11573e+08
3.11417e+08
3.10397e+08
3.10229e+08
3.09103e+08
3.089e+08
3.07706e+08
3.07427e+08
3.06208e+08
3.04826e+08
3.04566e+08
3.03056e+08
3.0281e+08
3.01201e+08
3.00939e+08
2.99266e+08
2.9895e+08
2.97271e+08
2.95563e+08
2.95185e+08
2.93309e+08
2.92981e+08
2.90992e+08
2.90675e+08
2.88607e+08
2.8826e+08
2.86157e+08
2.8572e+08
2.83651e+08
2.81429e+08
2.80992e+08
2.78588e+08
2.7819e+08
2.75651e+08
2.75245e+08
2.72614e+08
2.72142e+08
2.69489e+08
2.6887e+08
2.6627e+08
2.63398e+08
2.62874e+08
2.59822e+08
2.59333e+08
2.56165e+08
2.55651e+08
2.52437e+08
2.51824e+08
2.48663e+08
2.45478e+08
2.44794e+08
2.41363e+08
2.40776e+08
2.37201e+08
2.36637e+08
2.3299e+08
2.32377e+08
2.28741e+08
2.27987e+08
2.24481e+08
2.20816e+08
2.20102e+08
2.16235e+08
2.15604e+08
2.11631e+08
2.11004e+08
2.07007e+08
2.06298e+08
2.02376e+08
1.98627e+08
1.97743e+08
1.93712e+08
1.92987e+08
1.88803e+08
1.88141e+08
1.83895e+08
1.8321e+08
1.78991e+08
1.78188e+08
1.74119e+08
1.70073e+08
1.69219e+08
1.64941e+08
1.64219e+08
1.59835e+08
1.5915e+08
1.54752e+08
1.54014e+08
1.497e+08
1.48803e+08
1.44709e+08
1.40468e+08
1.39657e+08
1.3525e+08
1.3454e+08
1.30078e+08
1.29377e+08
1.24953e+08
1.24167e+08
1.1989e+08
1.15828e+08
1.1489e+08
1.10589e+08
1.09828e+08
1.05427e+08
1.04737e+08
1.00335e+08
9.96258e+07
9.53146e+07
9.44915e+07
9.03948e+07
8.63528e+07
8.55156e+07
8.13064e+07
8.06057e+07
7.63577e+07
7.56987e+07
7.15038e+07
7.08015e+07
6.67525e+07
6.59108e+07
6.21356e+07
5.82862e+07
5.75606e+07
5.36594e+07
5.30663e+07
3.24127e+08
3.24172e+08
3.24162e+08
3.24188e+08
3.2403e+08
3.23919e+08
3.23775e+08
3.235e+08
3.23383e+08
3.22998e+08
3.22915e+08
3.22425e+08
3.22374e+08
3.21782e+08
3.21728e+08
3.21021e+08
3.20311e+08
3.20076e+08
3.19188e+08
3.18988e+08
3.17963e+08
3.178e+08
3.16656e+08
3.16503e+08
3.15269e+08
3.15081e+08
3.13743e+08
3.12383e+08
3.12056e+08
3.10543e+08
3.10268e+08
3.08641e+08
3.08399e+08
3.06694e+08
3.06439e+08
3.04685e+08
3.03005e+08
3.02541e+08
3.00657e+08
3.00272e+08
2.98256e+08
2.97925e+08
2.95811e+08
2.95494e+08
2.9332e+08
2.92949e+08
2.90727e+08
2.88483e+08
2.87962e+08
2.85506e+08
2.85058e+08
2.82448e+08
2.82036e+08
2.7932e+08
2.78882e+08
2.76113e+08
2.75574e+08
2.72764e+08
2.69841e+08
2.69246e+08
2.66129e+08
2.65605e+08
2.62362e+08
2.61855e+08
2.58553e+08
2.57981e+08
2.54678e+08
2.51434e+08
2.50672e+08
2.47179e+08
2.46536e+08
2.42889e+08
2.42305e+08
2.38576e+08
2.37978e+08
2.34242e+08
2.33536e+08
2.29845e+08
2.26112e+08
2.25331e+08
2.21393e+08
2.20719e+08
2.16668e+08
2.16031e+08
2.11945e+08
2.11255e+08
2.07215e+08
2.03373e+08
2.02424e+08
1.98318e+08
1.97538e+08
1.93275e+08
1.92582e+08
1.88251e+08
1.87563e+08
1.83249e+08
1.82468e+08
1.78249e+08
1.74101e+08
1.73191e+08
1.68832e+08
1.68065e+08
1.63597e+08
1.62891e+08
1.58403e+08
1.57666e+08
1.53247e+08
1.52376e+08
1.48096e+08
1.4376e+08
1.42899e+08
1.38408e+08
1.37663e+08
1.33114e+08
1.32398e+08
1.27881e+08
1.27097e+08
1.227e+08
1.18506e+08
1.17529e+08
1.13138e+08
1.12337e+08
1.07849e+08
1.07132e+08
1.0264e+08
1.01919e+08
9.75122e+07
9.66907e+07
9.24507e+07
8.82842e+07
8.7412e+07
8.311e+07
8.23766e+07
7.80345e+07
7.73525e+07
7.30571e+07
7.2339e+07
6.81737e+07
6.73274e+07
6.33645e+07
5.93665e+07
5.86049e+07
5.45581e+07
5.39294e+07
3.31612e+08
3.31565e+08
3.31623e+08
3.31907e+08
3.31358e+08
3.3175e+08
3.31098e+08
3.31233e+08
3.30811e+08
3.30616e+08
3.30474e+08
3.29916e+08
3.30056e+08
3.29147e+08
3.29519e+08
3.28315e+08
3.2807e+08
3.27415e+08
3.26836e+08
3.26436e+08
3.25483e+08
3.25364e+08
3.24038e+08
3.24174e+08
3.22527e+08
3.22847e+08
3.20961e+08
3.19998e+08
3.19338e+08
3.18031e+08
3.1765e+08
3.15986e+08
3.15882e+08
3.13892e+08
3.14009e+08
3.11765e+08
3.10502e+08
3.09604e+08
3.08028e+08
3.07397e+08
3.05474e+08
3.05125e+08
3.02856e+08
3.02755e+08
3.00188e+08
3.00252e+08
2.97466e+08
2.95551e+08
2.94675e+08
2.924e+08
2.91795e+08
2.89151e+08
2.88802e+08
2.85823e+08
2.85667e+08
2.8243e+08
2.82368e+08
2.78971e+08
2.7629e+08
2.75436e+08
2.72403e+08
2.71811e+08
2.68449e+08
2.68077e+08
2.64448e+08
2.64212e+08
2.60409e+08
2.57402e+08
2.56323e+08
2.52991e+08
2.52176e+08
2.48527e+08
2.4795e+08
2.44028e+08
2.43623e+08
2.39509e+08
2.39176e+08
2.34969e+08
2.3141e+08
2.30393e+08
2.26533e+08
2.25765e+08
2.21635e+08
2.21067e+08
2.16731e+08
2.16277e+08
2.11827e+08
2.08111e+08
2.06914e+08
2.02917e+08
2.01976e+08
1.97716e+08
1.96993e+08
1.92522e+08
1.91949e+08
1.87344e+08
1.86825e+08
1.82182e+08
1.78116e+08
1.77021e+08
1.72706e+08
1.71843e+08
1.67315e+08
1.66629e+08
1.61955e+08
1.61363e+08
1.56631e+08
1.56033e+08
1.51334e+08
1.47032e+08
1.46048e+08
1.41541e+08
1.40753e+08
1.36097e+08
1.35435e+08
1.30705e+08
1.30082e+08
1.25367e+08
1.21152e+08
1.20068e+08
1.15664e+08
1.14792e+08
1.10242e+08
1.09522e+08
1.04892e+08
1.04246e+08
9.96167e+07
9.89556e+07
9.44104e+07
9.01912e+07
8.92562e+07
8.48993e+07
8.4134e+07
7.96934e+07
7.90297e+07
7.45749e+07
7.39316e+07
6.95363e+07
6.88285e+07
6.45613e+07
6.04293e+07
5.96381e+07
5.54301e+07
5.47813e+07
3.34176e+08
3.34156e+08
3.33991e+08
3.33794e+08
3.33866e+08
3.33301e+08
3.33614e+08
3.33088e+08
3.33248e+08
3.32755e+08
3.32731e+08
3.32276e+08
3.32054e+08
3.31635e+08
3.31222e+08
3.30839e+08
3.29759e+08
3.29903e+08